 Gaussian 09, Revision D.01,
 Gaussian 09:  ES64L-G09RevD.01 24-Apr-2013

 --------------------------------------------
 #P hf/6-31G* scf(qc) opt(tight,maxcycle=100)
 --------------------------------------------

 ------------------------------
 Gaussian input prepared by ASE
 ------------------------------
 Symbolic Z-matrix:
 Charge =  0 Multiplicity = 1

 SCF Done:  E(RHF) =  -342.788658440     a.u. after    7 cycles
 SCF Done:  E(RHF) =  -342.802002240     a.u. after    9 cycles
 SCF Done:  E(RHF) =  -342.803213099     a.u. after    7 cycles
 SCF Done:  E(RHF) =  -342.803711674     a.u. after    7 cycles
 SCF Done:  E(RHF) =  -342.804132093     a.u. after    9 cycles
 SCF Done:  E(RHF) =  -342.804312767     a.u. after    7 cycles
 SCF Done:  E(RHF) =  -342.804403209     a.u. after    6 cycles
 SCF Done:  E(RHF) =  -342.804413485     a.u. after    4 cycles
 SCF Done:  E(RHF) =  -342.804414983     a.u. after    3 cycles
 SCF Done:  E(RHF) =  -342.804415448     a.u. after    3 cycles
 SCF Done:  E(RHF) =  -342.804415774     a.u. after    3 cycles
 SCF Done:  E(RHF) =  -342.804415954     a.u. after    3 cycles
 SCF Done:  E(RHF) =  -342.804415985     a.u. after    2 cycles
 SCF Done:  E(RHF) =  -342.804415987     a.u. after    2 cycles
 SCF Done:  E(RHF) =  -342.804415988     a.u. after    2 cycles
 SCF Done:  E(RHF) =  -342.804415989     a.u. after    2 cycles
 SCF Done:  E(RHF) =  -342.804415990     a.u. after    2 cycles
 SCF Done:  E(RHF) =  -342.804415990     a.u. after    2 cycles
 Optimization completed.
    -- Stationary point found.

                         Standard orientation:
 ---------------------------------------------------------------------
 Center     Atomic      Atomic             Coordinates (Angstroms)
 Number     Number       Type             X           Y           Z
 ---------------------------------------------------------------------
      1          8           0       -2.047165   -0.935463   -0.114561
      2          6           0       -1.438706    0.276464    0.243453
      3          6           0        0.004243    0.379026   -0.248801
      4          8           0        0.513789    1.653813    0.037688
      5          6           0        0.902083   -0.642926    0.430523
      6          8           0        2.178735   -0.716849   -0.139442
      7          1           0       -2.255489   -0.929394   -1.038266
      8          1           0       -1.456418    0.328944    1.324276
      9          1           0       -2.009039    1.125635   -0.129371
     10          1           0        0.022222    0.195289   -1.326070
     11          1           0        0.147485    2.294400   -0.555426
     12          1           0        1.044149   -0.340995    1.459866
     13          1           0        0.411627   -1.611245    0.424048
     14          1           0        2.126870   -1.150020   -0.979587
 ---------------------------------------------------------------------

 The electronic state is 1-A.
 Alpha  occ. eigenvalues --  -20.57129 -20.56431 -20.55294 -11.28120 -11.27905
 Alpha  occ. eigenvalues --  -11.26581  -1.38596  -1.37208  -1.35495  -1.03126
 Alpha  occ. eigenvalues --   -0.92256  -0.82611  -0.72887  -0.71423  -0.68347
 Alpha  occ. eigenvalues --   -0.63801  -0.60732  -0.60177  -0.57900  -0.53338
 Alpha  occ. eigenvalues --   -0.51542  -0.49212  -0.48005  -0.44242  -0.41468
 Alpha virt. eigenvalues --    0.20425   0.22117   0.23334   0.27542   0.30644
 Alpha virt. eigenvalues --    0.31618   0.32748   0.34435   0.38597   0.43004
 Alpha virt. eigenvalues --    0.43949   0.46190   0.48593   0.74854   0.79498

 Mulliken charges:
               1
     1  O   -0.737326
     2  C   -0.024395
     3  C    0.117575
     4  O   -0.737265
     5  C    0.008842
     6  O   -0.734950
     7  H    0.438049
     8  H    0.185783
     9  H    0.140833
    10  H    0.120230
    11  H    0.439763
    12  H    0.183249
    13  H    0.167498
    14  H    0.432114
 Sum of Mulliken charges =   0.00000

 Dipole moment (field-independent basis, Debye):
    X=             -2.3207    Y=              0.4080    Z=             -3.1707  Tot=              3.9504
 Quadrupole moment (field-independent basis, Debye-Ang):
   XX=            -44.1970   YY=            -35.2719   ZZ=            -31.0381
   XY=             -5.0416   XZ=              0.9026   YZ=              0.2643

 Normal termination of Gaussian 09 at Wed Sep 20 14:29:35 2023.
