 Gaussian 09, Revision D.01,
 Gaussian 09:  ES64L-G09RevD.01 24-Apr-2013

 --------------------------------------------
 #P hf/6-31G* scf(qc) opt(tight,maxcycle=100)
 --------------------------------------------

 ------------------------------
 Gaussian input prepared by ASE
 ------------------------------
 Symbolic Z-matrix:
 Charge =  0 Multiplicity = 1

 SCF Done:  E(RHF) =  -342.789958984     a.u. after    7 cycles
 SCF Done:  E(RHF) =  -342.805513634     a.u. after    9 cycles
 SCF Done:  E(RHF) =  -342.808023187     a.u. after    9 cycles
 SCF Done:  E(RHF) =  -342.811316602     a.u. after   13 cycles
 SCF Done:  E(RHF) =  -342.812639520     a.u. after    7 cycles
 SCF Done:  E(RHF) =  -342.814033795     a.u. after   10 cycles
 SCF Done:  E(RHF) =  -342.814291771     a.u. after    7 cycles
 SCF Done:  E(RHF) =  -342.814398564     a.u. after    7 cycles
 SCF Done:  E(RHF) =  -342.814411873     a.u. after    3 cycles
 SCF Done:  E(RHF) =  -342.814419719     a.u. after    3 cycles
 SCF Done:  E(RHF) =  -342.814424964     a.u. after    3 cycles
 SCF Done:  E(RHF) =  -342.814426498     a.u. after    3 cycles
 SCF Done:  E(RHF) =  -342.814427143     a.u. after    4 cycles
 SCF Done:  E(RHF) =  -342.814427424     a.u. after    3 cycles
 SCF Done:  E(RHF) =  -342.814427522     a.u. after    4 cycles
 SCF Done:  E(RHF) =  -342.814427529     a.u. after    2 cycles
 SCF Done:  E(RHF) =  -342.814427530     a.u. after    2 cycles
 Optimization completed.
    -- Stationary point found.

                         Standard orientation:
 ---------------------------------------------------------------------
 Center     Atomic      Atomic             Coordinates (Angstroms)
 Number     Number       Type             X           Y           Z
 ---------------------------------------------------------------------
      1          8           0       -1.869622   -0.340557   -0.698555
      2          6           0       -1.388121   -0.271531    0.622900
      3          6           0        0.049882    0.212561    0.555186
      4          8           0        0.115852    1.447041   -0.118003
      5          6           0        0.996127   -0.779214   -0.110504
      6          8           0        2.299080   -0.273726   -0.129125
      7          1           0       -2.799868   -0.515380   -0.700385
      8          1           0       -1.438357   -1.243365    1.107798
      9          1           0       -1.973277    0.434101    1.205235
     10          1           0        0.405173    0.398964    1.561800
     11          1           0       -0.432599    1.385489   -0.891501
     12          1           0        0.648190   -1.001945   -1.116244
     13          1           0        1.023990   -1.708141    0.446685
     14          1           0        2.256938    0.617308   -0.453417
 ---------------------------------------------------------------------

 The electronic state is 1-A.
 Alpha  occ. eigenvalues --  -20.58142 -20.56277 -20.54468 -11.28721 -11.27869
 Alpha  occ. eigenvalues --  -11.26277  -1.39764  -1.37038  -1.34565  -1.03404
 Alpha  occ. eigenvalues --   -0.92195  -0.82696  -0.74016  -0.69223  -0.67366
 Alpha  occ. eigenvalues --   -0.65843  -0.62148  -0.60217  -0.57581  -0.54303
 Alpha  occ. eigenvalues --   -0.50990  -0.49247  -0.46967  -0.45583  -0.41400
 Alpha virt. eigenvalues --    0.20324   0.25261   0.26065   0.29237   0.29971
 Alpha virt. eigenvalues --    0.31488   0.31908   0.35454   0.36894   0.41274
 Alpha virt. eigenvalues --    0.41950   0.44654   0.48231   0.77201   0.77761

 Mulliken charges:
               1
     1  O   -0.759411
     2  C   -0.032901
     3  C    0.117388
     4  O   -0.774534
     5  C    0.016763
     6  O   -0.752008
     7  H    0.452377
     8  H    0.153733
     9  H    0.165518
    10  H    0.184443
    11  H    0.460903
    12  H    0.156970
    13  H    0.157057
    14  H    0.453700
 Sum of Mulliken charges =   0.00000

 Dipole moment (field-independent basis, Debye):
    X=             -3.8687    Y=             -0.6492    Z=              0.3466  Tot=              3.9380
 Quadrupole moment (field-independent basis, Debye-Ang):
   XX=            -35.4000   YY=            -38.2485   ZZ=            -34.7999
   XY=              3.1701   XZ=             -1.2720   YZ=             -2.5230

 Normal termination of Gaussian 09 at Wed Sep 20 14:35:39 2023.
