 Gaussian 09, Revision D.01,
 Gaussian 09:  ES64L-G09RevD.01 24-Apr-2013

 --------------------------------------------
 #P hf/6-31G* scf(qc) opt(tight,maxcycle=100)
 --------------------------------------------

 ------------------------------
 Gaussian input prepared by ASE
 ------------------------------
 Symbolic Z-matrix:
 Charge =  0 Multiplicity = 1

 SCF Done:  E(RHF) =  -342.794612646     a.u. after    7 cycles
 SCF Done:  E(RHF) =  -342.808039410     a.u. after   11 cycles
 SCF Done:  E(RHF) =  -342.811041247     a.u. after    9 cycles
 SCF Done:  E(RHF) =  -342.813127924     a.u. after   11 cycles
 SCF Done:  E(RHF) =  -342.813999449     a.u. after    7 cycles
 SCF Done:  E(RHF) =  -342.814589768     a.u. after    9 cycles
 SCF Done:  E(RHF) =  -342.814799037     a.u. after    6 cycles
 SCF Done:  E(RHF) =  -342.815066040     a.u. after    9 cycles
 SCF Done:  E(RHF) =  -342.815583031     a.u. after    9 cycles
 SCF Done:  E(RHF) =  -342.816432857     a.u. after   11 cycles
 SCF Done:  E(RHF) =  -342.816553829     a.u. after    6 cycles
 SCF Done:  E(RHF) =  -342.816593527     a.u. after    5 cycles
 SCF Done:  E(RHF) =  -342.816603822     a.u. after    3 cycles
 SCF Done:  E(RHF) =  -342.816607959     a.u. after    3 cycles
 SCF Done:  E(RHF) =  -342.816608602     a.u. after    4 cycles
 SCF Done:  E(RHF) =  -342.816608692     a.u. after    2 cycles
 SCF Done:  E(RHF) =  -342.816608699     a.u. after    2 cycles
 SCF Done:  E(RHF) =  -342.816608699     a.u. after    2 cycles
 Optimization completed.
    -- Stationary point found.

                         Standard orientation:
 ---------------------------------------------------------------------
 Center     Atomic      Atomic             Coordinates (Angstroms)
 Number     Number       Type             X           Y           Z
 ---------------------------------------------------------------------
      1          8           0       -2.220784   -0.153926   -0.105131
      2          6           0       -0.958727   -0.776644   -0.031792
      3          6           0       -0.007008    0.244954    0.565674
      4          8           0       -0.014587    1.418201   -0.206837
      5          6           0        1.433327   -0.237918    0.597267
      6          8           0        1.926246   -0.479901   -0.688758
      7          1           0       -2.817607   -0.686232   -0.611327
      8          1           0       -0.611364   -1.066155   -1.016960
      9          1           0       -0.999979   -1.661898    0.597878
     10          1           0       -0.331121    0.464735    1.581608
     11          1           0       -0.917864    1.642472   -0.393869
     12          1           0        1.508938   -1.167682    1.147886
     13          1           0        2.037673    0.505550    1.110305
     14          1           0        1.798773    0.311862   -1.196610
 ---------------------------------------------------------------------

 The electronic state is 1-A.
 Alpha  occ. eigenvalues --  -20.57405 -20.55987 -20.55228 -11.27726 -11.27655
 Alpha  occ. eigenvalues --  -11.27008  -1.39328  -1.36891  -1.34865  -1.03261
 Alpha  occ. eigenvalues --   -0.92475  -0.81410  -0.73637  -0.69411  -0.68590
 Alpha  occ. eigenvalues --   -0.65423  -0.62511  -0.59247  -0.56962  -0.54309
 Alpha  occ. eigenvalues --   -0.51892  -0.49207  -0.45750  -0.44030  -0.43189
 Alpha virt. eigenvalues --    0.21263   0.24318   0.26541   0.28726   0.30386
 Alpha virt. eigenvalues --    0.31889   0.33668   0.35185   0.38269   0.39822
 Alpha virt. eigenvalues --    0.42754   0.44074   0.48508   0.77239   0.78284

 Mulliken charges:
               1
     1  O   -0.766509
     2  C   -0.012977
     3  C    0.126941
     4  O   -0.779880
     5  C   -0.002743
     6  O   -0.749148
     7  H    0.449613
     8  H    0.173278
     9  H    0.147834
    10  H    0.159581
    11  H    0.467604
    12  H    0.165254
    13  H    0.163695
    14  H    0.457456
 Sum of Mulliken charges =   0.00000

 Dipole moment (field-independent basis, Debye):
    X=             -2.0425    Y=             -0.8718    Z=              0.1107  Tot=              2.2236
 Quadrupole moment (field-independent basis, Debye-Ang):
   XX=            -36.9577   YY=            -36.7963   ZZ=            -34.1452
   XY=              4.3325   XZ=              4.7877   YZ=             -1.3792

 Normal termination of Gaussian 09 at Wed Sep 20 14:37:37 2023.
