 Gaussian 09, Revision D.01,
 Gaussian 09:  ES64L-G09RevD.01 24-Apr-2013

 --------------------------------------------
 #P hf/6-31G* scf(qc) opt(tight,maxcycle=100)
 --------------------------------------------

 ------------------------------
 Gaussian input prepared by ASE
 ------------------------------
 Symbolic Z-matrix:
 Charge =  0 Multiplicity = 1

 SCF Done:  E(RHF) =  -342.785606206     a.u. after    7 cycles
 SCF Done:  E(RHF) =  -342.801634314     a.u. after   11 cycles
 SCF Done:  E(RHF) =  -342.802148910     a.u. after    6 cycles
 SCF Done:  E(RHF) =  -342.802263102     a.u. after    4 cycles
 SCF Done:  E(RHF) =  -342.802399352     a.u. after    6 cycles
 SCF Done:  E(RHF) =  -342.802601950     a.u. after    9 cycles
 SCF Done:  E(RHF) =  -342.803017439     a.u. after   11 cycles
 SCF Done:  E(RHF) =  -342.804275070     a.u. after   15 cycles
 SCF Done:  E(RHF) =  -342.791261755     a.u. after   12 cycles
 SCF Done:  E(RHF) =  -342.807512029     a.u. after   10 cycles
 SCF Done:  E(RHF) =  -342.812633320     a.u. after    7 cycles
 SCF Done:  E(RHF) =  -342.812602951     a.u. after   11 cycles
 SCF Done:  E(RHF) =  -342.813005776     a.u. after    7 cycles
 SCF Done:  E(RHF) =  -342.813043603     a.u. after    5 cycles
 SCF Done:  E(RHF) =  -342.813046194     a.u. after    3 cycles
 SCF Done:  E(RHF) =  -342.813046544     a.u. after    2 cycles
 SCF Done:  E(RHF) =  -342.813046614     a.u. after    3 cycles
 SCF Done:  E(RHF) =  -342.813046671     a.u. after    3 cycles
 SCF Done:  E(RHF) =  -342.813046726     a.u. after    2 cycles
 SCF Done:  E(RHF) =  -342.813046735     a.u. after    2 cycles
 Optimization completed.
    -- Stationary point found.

                         Standard orientation:
 ---------------------------------------------------------------------
 Center     Atomic      Atomic             Coordinates (Angstroms)
 Number     Number       Type             X           Y           Z
 ---------------------------------------------------------------------
      1          8           0       -2.119215   -0.615024   -0.175013
      2          6           0       -0.798789   -0.783082    0.289276
      3          6           0        0.007684    0.362084   -0.297219
      4          8           0       -0.552551    1.591741    0.071342
      5          6           0        1.441196    0.381077    0.197595
      6          8           0        2.054303   -0.821551   -0.188555
      7          1           0       -2.686036   -1.264578    0.215251
      8          1           0       -0.388677   -1.734160   -0.029014
      9          1           0       -0.766983   -0.730810    1.375331
     10          1           0        0.011698    0.254479   -1.379399
     11          1           0       -1.484237    1.550990   -0.103698
     12          1           0        1.446335    0.498716    1.278694
     13          1           0        1.944664    1.240401   -0.234804
     14          1           0        2.962389   -0.816836    0.077538
 ---------------------------------------------------------------------

 The electronic state is 1-A.
 Alpha  occ. eigenvalues --  -20.56635 -20.56304 -20.54895 -11.27054 -11.26973
 Alpha  occ. eigenvalues --  -11.26839  -1.38380  -1.36874  -1.34955  -1.02701
 Alpha  occ. eigenvalues --   -0.92165  -0.80057  -0.72694  -0.71539  -0.67092
 Alpha  occ. eigenvalues --   -0.65007  -0.62760  -0.58421  -0.56509  -0.53437
 Alpha  occ. eigenvalues --   -0.52630  -0.47083  -0.45473  -0.44323  -0.42646
 Alpha virt. eigenvalues --    0.21237   0.22839   0.27191   0.28662   0.30658
 Alpha virt. eigenvalues --    0.31631   0.34285   0.35763   0.38645   0.41143
 Alpha virt. eigenvalues --    0.44436   0.45789   0.49426   0.75366   0.78614

 Mulliken charges:
               1
     1  O   -0.767879
     2  C   -0.011228
     3  C    0.150886
     4  O   -0.771932
     5  C   -0.011079
     6  O   -0.751146
     7  H    0.447704
     8  H    0.175321
     9  H    0.144366
    10  H    0.168504
    11  H    0.464212
    12  H    0.150699
    13  H    0.165998
    14  H    0.445573
 Sum of Mulliken charges =   0.00000

 Dipole moment (field-independent basis, Debye):
    X=              0.3951    Y=             -1.4656    Z=              1.3199  Tot=              2.0116
 Quadrupole moment (field-independent basis, Debye-Ang):
   XX=            -26.4506   YY=            -38.5054   ZZ=            -36.9549
   XY=              3.2044   XZ=             -0.2197   YZ=             -2.7125

 Normal termination of Gaussian 09 at Wed Sep 20 14:33:41 2023.
