 Gaussian 09, Revision D.01,
 Gaussian 09:  ES64L-G09RevD.01 24-Apr-2013

 --------------------------------------------
 #P hf/6-31G* scf(qc) opt(tight,maxcycle=100)
 --------------------------------------------

 ------------------------------
 Gaussian input prepared by ASE
 ------------------------------
 Symbolic Z-matrix:
 Charge =  0 Multiplicity = 1

 SCF Done:  E(RHF) =  -342.787636167     a.u. after    7 cycles
 SCF Done:  E(RHF) =  -342.803578531     a.u. after    9 cycles
 SCF Done:  E(RHF) =  -342.804682192     a.u. after    7 cycles
 SCF Done:  E(RHF) =  -342.805325345     a.u. after    7 cycles
 SCF Done:  E(RHF) =  -342.805941571     a.u. after   10 cycles
 SCF Done:  E(RHF) =  -342.806456547     a.u. after    9 cycles
 SCF Done:  E(RHF) =  -342.807952296     a.u. after   13 cycles
 SCF Done:  E(RHF) =  -342.808962033     a.u. after   11 cycles
 SCF Done:  E(RHF) =  -342.808051744     a.u. after   13 cycles
 SCF Done:  E(RHF) =  -342.810895444     a.u. after    7 cycles
 SCF Done:  E(RHF) =  -342.811929215     a.u. after    5 cycles
 SCF Done:  E(RHF) =  -342.811947937     a.u. after    4 cycles
 SCF Done:  E(RHF) =  -342.811956307     a.u. after    3 cycles
 SCF Done:  E(RHF) =  -342.811958414     a.u. after    3 cycles
 SCF Done:  E(RHF) =  -342.811960315     a.u. after    3 cycles
 SCF Done:  E(RHF) =  -342.811960610     a.u. after    2 cycles
 SCF Done:  E(RHF) =  -342.811960681     a.u. after    2 cycles
 SCF Done:  E(RHF) =  -342.811960720     a.u. after    2 cycles
 SCF Done:  E(RHF) =  -342.811960727     a.u. after    2 cycles
 SCF Done:  E(RHF) =  -342.811960727     a.u. after    2 cycles
 Optimization completed.
    -- Stationary point found.

                         Standard orientation:
 ---------------------------------------------------------------------
 Center     Atomic      Atomic             Coordinates (Angstroms)
 Number     Number       Type             X           Y           Z
 ---------------------------------------------------------------------
      1          8           0        2.165813   -0.656722   -0.070377
      2          6           0        0.825279   -0.754894    0.356835
      3          6           0       -0.011551    0.345112   -0.278560
      4          8           0        0.543403    1.597651    0.003351
      5          6           0       -1.441953    0.364793    0.238955
      6          8           0       -2.134555   -0.810485   -0.093736
      7          1           0        2.254291   -1.035448   -0.934084
      8          1           0        0.409652   -1.732265    0.140725
      9          1           0        0.841619   -0.619684    1.430634
     10          1           0       -0.034121    0.181685   -1.360216
     11          1           0        1.487208    1.525817   -0.070839
     12          1           0       -1.436134    0.432782    1.318914
     13          1           0       -1.945269    1.247782   -0.142105
     14          1           0       -2.405184   -0.774288   -1.000311
 ---------------------------------------------------------------------

 The electronic state is 1-A.
 Alpha  occ. eigenvalues --  -20.57320 -20.56691 -20.55649 -11.27703 -11.27451
 Alpha  occ. eigenvalues --  -11.27359  -1.38999  -1.37282  -1.35690  -1.02978
 Alpha  occ. eigenvalues --   -0.92659  -0.82569  -0.72613  -0.69832  -0.68822
 Alpha  occ. eigenvalues --   -0.65515  -0.63296  -0.58700  -0.57959  -0.53077
 Alpha  occ. eigenvalues --   -0.50617  -0.50027  -0.49213  -0.43567  -0.42347
 Alpha virt. eigenvalues --    0.20931   0.21407   0.27060   0.27928   0.30488
 Alpha virt. eigenvalues --    0.31437   0.33124   0.33396   0.37926   0.41975
 Alpha virt. eigenvalues --    0.43997   0.46063   0.49704   0.74354   0.78119

 Mulliken charges:
               1
     1  O   -0.756240
     2  C   -0.023508
     3  C    0.141313
     4  O   -0.765504
     5  C   -0.019924
     6  O   -0.744005
     7  H    0.441570
     8  H    0.173043
     9  H    0.181154
    10  H    0.119117
    11  H    0.461563
    12  H    0.181208
    13  H    0.170487
    14  H    0.439727
 Sum of Mulliken charges =   0.00000

 Dipole moment (field-independent basis, Debye):
    X=             -0.0422    Y=             -0.9402    Z=             -2.4809  Tot=              2.6534
 Quadrupole moment (field-independent basis, Debye-Ang):
   XX=            -38.3458   YY=            -40.0977   ZZ=            -32.1306
   XY=             -2.0201   XZ=              0.2517   YZ=              2.5039

 Normal termination of Gaussian 09 at Wed Sep 20 14:30:43 2023.
