 Gaussian 09, Revision D.01,
 Gaussian 09:  ES64L-G09RevD.01 24-Apr-2013

 --------------------------------------------
 #P hf/6-31G* scf(qc) opt(tight,maxcycle=100)
 --------------------------------------------

 ------------------------------
 Gaussian input prepared by ASE
 ------------------------------
 Symbolic Z-matrix:
 Charge =  0 Multiplicity = 1

 SCF Done:  E(RHF) =  -342.788640001     a.u. after    7 cycles
 SCF Done:  E(RHF) =  -342.803854048     a.u. after    9 cycles
 SCF Done:  E(RHF) =  -342.805929765     a.u. after    9 cycles
 SCF Done:  E(RHF) =  -342.808103663     a.u. after   11 cycles
 SCF Done:  E(RHF) =  -342.809081173     a.u. after    9 cycles
 SCF Done:  E(RHF) =  -342.809752057     a.u. after    9 cycles
 SCF Done:  E(RHF) =  -342.809879070     a.u. after    7 cycles
 SCF Done:  E(RHF) =  -342.809898831     a.u. after    4 cycles
 SCF Done:  E(RHF) =  -342.809910767     a.u. after    4 cycles
 SCF Done:  E(RHF) =  -342.809922064     a.u. after    4 cycles
 SCF Done:  E(RHF) =  -342.809926380     a.u. after    3 cycles
 SCF Done:  E(RHF) =  -342.809926838     a.u. after    2 cycles
 SCF Done:  E(RHF) =  -342.809926900     a.u. after    2 cycles
 SCF Done:  E(RHF) =  -342.809926911     a.u. after    2 cycles
 SCF Done:  E(RHF) =  -342.809926917     a.u. after    2 cycles
 SCF Done:  E(RHF) =  -342.809926920     a.u. after    2 cycles
 SCF Done:  E(RHF) =  -342.809926920     a.u. after    2 cycles
 Optimization completed.
    -- Stationary point found.

                         Standard orientation:
 ---------------------------------------------------------------------
 Center     Atomic      Atomic             Coordinates (Angstroms)
 Number     Number       Type             X           Y           Z
 ---------------------------------------------------------------------
      1          8           0        2.048757   -0.817798   -0.166576
      2          6           0        1.434871    0.397244    0.161221
      3          6           0       -0.011825    0.340539   -0.302999
      4          8           0       -0.649294    1.575520   -0.050502
      5          6           0       -0.809554   -0.790549    0.328104
      6          8           0       -2.122435   -0.802165   -0.149949
      7          1           0        2.967072   -0.788802    0.060826
      8          1           0        1.468282    0.572129    1.238034
      9          1           0        1.922762    1.236657   -0.325767
     10          1           0       -0.032365    0.220278   -1.377645
     11          1           0       -0.620526    1.765467    0.878986
     12          1           0       -0.366589   -1.745444    0.088537
     13          1           0       -0.793681   -0.679121    1.415290
     14          1           0       -2.442124    0.090974   -0.159995
 ---------------------------------------------------------------------

 The electronic state is 1-A.
 Alpha  occ. eigenvalues --  -20.57646 -20.57326 -20.54853 -11.28513 -11.28047
 Alpha  occ. eigenvalues --  -11.26570  -1.39341  -1.37724  -1.35182  -1.03283
 Alpha  occ. eigenvalues --   -0.92296  -0.83500  -0.72601  -0.71417  -0.66371
 Alpha  occ. eigenvalues --   -0.64424  -0.63901  -0.61299  -0.56268  -0.55075
 Alpha  occ. eigenvalues --   -0.51681  -0.49527  -0.45861  -0.45375  -0.42303
 Alpha virt. eigenvalues --    0.20641   0.21262   0.27361   0.27752   0.29942
 Alpha virt. eigenvalues --    0.30500   0.33011   0.35331   0.38061   0.42351
 Alpha virt. eigenvalues --    0.44302   0.45649   0.46273   0.75596   0.77725

 Mulliken charges:
               1
     1  O   -0.741034
     2  C   -0.015909
     3  C    0.106383
     4  O   -0.762734
     5  C    0.018410
     6  O   -0.748633
     7  H    0.448137
     8  H    0.126378
     9  H    0.166906
    10  H    0.200790
    11  H    0.435783
    12  H    0.197825
    13  H    0.117325
    14  H    0.450373
 Sum of Mulliken charges =   0.00000

 Dipole moment (field-independent basis, Debye):
    X=              2.8080    Y=              1.7635    Z=              2.2367  Tot=              3.9997
 Quadrupole moment (field-independent basis, Debye-Ang):
   XX=            -33.1464   YY=            -40.5620   ZZ=            -35.0924
   XY=             -2.5329   XZ=             -0.0637   YZ=              1.8766

 Normal termination of Gaussian 09 at Wed Sep 20 14:34:42 2023.
