 Gaussian 09, Revision D.01,
 Gaussian 09:  ES64L-G09RevD.01 24-Apr-2013

 --------------------------------------------
 #P hf/6-31G* scf(qc) opt(tight,maxcycle=100)
 --------------------------------------------

 ------------------------------
 Gaussian input prepared by ASE
 ------------------------------
 Symbolic Z-matrix:
 Charge =  0 Multiplicity = 1

 SCF Done:  E(RHF) =  -342.807389733     a.u. after    7 cycles
 SCF Done:  E(RHF) =  -342.813946733     a.u. after    8 cycles
 SCF Done:  E(RHF) =  -342.814309043     a.u. after    7 cycles
 SCF Done:  E(RHF) =  -342.814396916     a.u. after    5 cycles
 SCF Done:  E(RHF) =  -342.814414090     a.u. after    4 cycles
 SCF Done:  E(RHF) =  -342.814422244     a.u. after    3 cycles
 SCF Done:  E(RHF) =  -342.814426625     a.u. after    4 cycles
 SCF Done:  E(RHF) =  -342.814427348     a.u. after    3 cycles
 SCF Done:  E(RHF) =  -342.814427502     a.u. after    3 cycles
 SCF Done:  E(RHF) =  -342.814427527     a.u. after    2 cycles
 SCF Done:  E(RHF) =  -342.814427529     a.u. after    2 cycles
 Optimization completed.
    -- Stationary point found.

                         Standard orientation:
 ---------------------------------------------------------------------
 Center     Atomic      Atomic             Coordinates (Angstroms)
 Number     Number       Type             X           Y           Z
 ---------------------------------------------------------------------
      1          8           0        2.299088   -0.273722   -0.129106
      2          6           0        0.996134   -0.779209   -0.110515
      3          6           0        0.049881    0.212557    0.555178
      4          8           0        0.115839    1.447044   -0.118008
      5          6           0       -1.388123   -0.271530    0.622905
      6          8           0       -1.869625   -0.340565   -0.698550
      7          1           0        2.256968    0.617299   -0.453438
      8          1           0        1.023991   -1.708148    0.446656
      9          1           0        0.648216   -1.001923   -1.116266
     10          1           0        0.405180    0.398973    1.561787
     11          1           0       -0.432609    1.385472   -0.891505
     12          1           0       -1.973272    0.434112    1.205230
     13          1           0       -1.438371   -1.243364    1.107801
     14          1           0       -2.799872   -0.515381   -0.700366
 ---------------------------------------------------------------------

 The electronic state is 1-A.
 Alpha  occ. eigenvalues --  -20.58142 -20.56277 -20.54468 -11.28721 -11.27869
 Alpha  occ. eigenvalues --  -11.26278  -1.39764  -1.37038  -1.34565  -1.03404
 Alpha  occ. eigenvalues --   -0.92195  -0.82696  -0.74016  -0.69223  -0.67366
 Alpha  occ. eigenvalues --   -0.65843  -0.62148  -0.60217  -0.57581  -0.54303
 Alpha  occ. eigenvalues --   -0.50990  -0.49247  -0.46967  -0.45583  -0.41400
 Alpha virt. eigenvalues --    0.20324   0.25261   0.26065   0.29237   0.29971
 Alpha virt. eigenvalues --    0.31488   0.31908   0.35454   0.36894   0.41274
 Alpha virt. eigenvalues --    0.41950   0.44654   0.48231   0.77201   0.77761

 Mulliken charges:
               1
     1  O   -0.752005
     2  C    0.016761
     3  C    0.117388
     4  O   -0.774534
     5  C   -0.032902
     6  O   -0.759410
     7  H    0.453699
     8  H    0.157058
     9  H    0.156970
    10  H    0.184444
    11  H    0.460902
    12  H    0.165519
    13  H    0.153734
    14  H    0.452376
 Sum of Mulliken charges =   0.00000

 Dipole moment (field-independent basis, Debye):
    X=             -3.8686    Y=             -0.6493    Z=              0.3465  Tot=              3.9379
 Quadrupole moment (field-independent basis, Debye-Ang):
   XX=            -35.3998   YY=            -38.2486   ZZ=            -34.7999
   XY=              3.1701   XZ=             -1.2723   YZ=             -2.5230

 Normal termination of Gaussian 09 at Wed Sep 20 14:32:16 2023.
