 Gaussian 09, Revision D.01,
 Gaussian 09:  ES64L-G09RevD.01 24-Apr-2013

 --------------------------------------------
 #P hf/6-31G* scf(qc) opt(tight,maxcycle=100)
 --------------------------------------------

 ------------------------------
 Gaussian input prepared by ASE
 ------------------------------
 Symbolic Z-matrix:
 Charge =  0 Multiplicity = 1

 SCF Done:  E(RHF) =  -342.793872917     a.u. after    7 cycles
 SCF Done:  E(RHF) =  -342.808255626     a.u. after    9 cycles
 SCF Done:  E(RHF) =  -342.810598336     a.u. after    9 cycles
 SCF Done:  E(RHF) =  -342.812390523     a.u. after    9 cycles
 SCF Done:  E(RHF) =  -342.813298458     a.u. after    9 cycles
 SCF Done:  E(RHF) =  -342.813781884     a.u. after    9 cycles
 SCF Done:  E(RHF) =  -342.813898723     a.u. after    6 cycles
 SCF Done:  E(RHF) =  -342.813919843     a.u. after    4 cycles
 SCF Done:  E(RHF) =  -342.813937045     a.u. after    4 cycles
 SCF Done:  E(RHF) =  -342.813944157     a.u. after    4 cycles
 SCF Done:  E(RHF) =  -342.813944758     a.u. after    2 cycles
 SCF Done:  E(RHF) =  -342.813944957     a.u. after    3 cycles
 SCF Done:  E(RHF) =  -342.813945056     a.u. after    2 cycles
 SCF Done:  E(RHF) =  -342.813945069     a.u. after    2 cycles
 SCF Done:  E(RHF) =  -342.813945071     a.u. after    2 cycles
 Optimization completed.
    -- Stationary point found.

                         Standard orientation:
 ---------------------------------------------------------------------
 Center     Atomic      Atomic             Coordinates (Angstroms)
 Number     Number       Type             X           Y           Z
 ---------------------------------------------------------------------
      1          8           0        1.937287   -0.495180   -0.663513
      2          6           0        1.417677   -0.244660    0.608791
      3          6           0       -0.026620    0.231252    0.546176
      4          8           0       -0.104348    1.387099   -0.274435
      5          6           0       -0.975301   -0.783771   -0.068665
      6          8           0       -2.284516   -0.295100   -0.095680
      7          1           0        1.756335    0.260900   -1.207833
      8          1           0        2.017459    0.501573    1.130189
      9          1           0        1.488430   -1.168153    1.170458
     10          1           0       -0.378292    0.465967    1.547712
     11          1           0        0.129841    2.158170    0.223279
     12          1           0       -0.986066   -1.685134    0.530705
     13          1           0       -0.631192   -1.045431   -1.063995
     14          1           0       -2.278434    0.520635   -0.579309
 ---------------------------------------------------------------------

 The electronic state is 1-A.
 Alpha  occ. eigenvalues --  -20.58442 -20.56016 -20.55145 -11.28641 -11.27874
 Alpha  occ. eigenvalues --  -11.26869  -1.39994  -1.36573  -1.35417  -1.03693
 Alpha  occ. eigenvalues --   -0.92322  -0.82679  -0.73994  -0.70488  -0.68137
 Alpha  occ. eigenvalues --   -0.64528  -0.62303  -0.59841  -0.58394  -0.53116
 Alpha  occ. eigenvalues --   -0.52461  -0.49466  -0.47790  -0.45127  -0.41782
 Alpha virt. eigenvalues --    0.19719   0.25379   0.26275   0.27425   0.29793
 Alpha virt. eigenvalues --    0.30977   0.32337   0.35209   0.37303   0.41301
 Alpha virt. eigenvalues --    0.42704   0.43123   0.48843   0.76826   0.77751

 Mulliken charges:
               1
     1  O   -0.741307
     2  C    0.002195
     3  C    0.075989
     4  O   -0.777348
     5  C    0.023574
     6  O   -0.750192
     7  H    0.452868
     8  H    0.138836
     9  H    0.171947
    10  H    0.165227
    11  H    0.449715
    12  H    0.168101
    13  H    0.168710
    14  H    0.451686
 Sum of Mulliken charges =   0.00000

 Dipole moment (field-independent basis, Debye):
    X=              1.0134    Y=              2.5044    Z=              1.3927  Tot=              3.0395
 Quadrupole moment (field-independent basis, Debye-Ang):
   XX=            -45.9261   YY=            -32.5823   ZZ=            -34.3040
   XY=              1.0598   XZ=              2.8656   YZ=             -0.4900

 Normal termination of Gaussian 09 at Wed Sep 20 14:38:32 2023.
