 Gaussian 09, Revision D.01,
 Gaussian 09:  ES64L-G09RevD.01 24-Apr-2013

 --------------------------------------------
 #P hf/6-31G* scf(qc) opt(tight,maxcycle=100)
 --------------------------------------------

 ------------------------------
 Gaussian input prepared by ASE
 ------------------------------
 Symbolic Z-matrix:
 Charge =  0 Multiplicity = 1

 SCF Done:  E(RHF) =  -342.786690133     a.u. after    7 cycles
 SCF Done:  E(RHF) =  -342.806443916     a.u. after   11 cycles
 SCF Done:  E(RHF) =  -342.809139370     a.u. after    9 cycles
 SCF Done:  E(RHF) =  -342.810433327     a.u. after    7 cycles
 SCF Done:  E(RHF) =  -342.811919816     a.u. after   11 cycles
 SCF Done:  E(RHF) =  -342.812232309     a.u. after    7 cycles
 SCF Done:  E(RHF) =  -342.812360051     a.u. after    7 cycles
 SCF Done:  E(RHF) =  -342.812371281     a.u. after    4 cycles
 SCF Done:  E(RHF) =  -342.812375357     a.u. after    3 cycles
 SCF Done:  E(RHF) =  -342.812376667     a.u. after    3 cycles
 SCF Done:  E(RHF) =  -342.812376973     a.u. after    4 cycles
 SCF Done:  E(RHF) =  -342.812377256     a.u. after    3 cycles
 SCF Done:  E(RHF) =  -342.812377337     a.u. after    3 cycles
 SCF Done:  E(RHF) =  -342.812377343     a.u. after    2 cycles
 SCF Done:  E(RHF) =  -342.812377344     a.u. after    2 cycles
 SCF Done:  E(RHF) =  -342.812377344     a.u. after    2 cycles
 SCF Done:  E(RHF) =  -342.812377344     a.u. after    2 cycles
 SCF Done:  E(RHF) =  -342.812377344     a.u. after    2 cycles
 Optimization completed.
    -- Stationary point found.

                         Standard orientation:
 ---------------------------------------------------------------------
 Center     Atomic      Atomic             Coordinates (Angstroms)
 Number     Number       Type             X           Y           Z
 ---------------------------------------------------------------------
      1          8           0       -1.991815   -0.638686    0.024038
      2          6           0       -1.152287    0.387988   -0.439998
      3          6           0        0.070150    0.598775    0.451178
      4          8           0        0.879517    1.594136   -0.112880
      5          6           0        0.870757   -0.676606    0.674047
      6          8           0        1.407914   -1.146481   -0.540856
      7          1           0       -2.489281   -0.334141    0.770150
      8          1           0       -1.686714    1.327579   -0.539572
      9          1           0       -0.829728    0.097427   -1.431849
     10          1           0       -0.253737    0.972459    1.418750
     11          1           0        1.415817    1.187744   -0.783569
     12          1           0        1.712611   -0.453329    1.316173
     13          1           0        0.263058   -1.434687    1.152987
     14          1           0        0.771321   -1.695741   -0.976850
 ---------------------------------------------------------------------

 The electronic state is 1-A.
 Alpha  occ. eigenvalues --  -20.57127 -20.57062 -20.55688 -11.27670 -11.27524
 Alpha  occ. eigenvalues --  -11.27414  -1.38970  -1.37365  -1.35725  -1.02553
 Alpha  occ. eigenvalues --   -0.93453  -0.82699  -0.72038  -0.69899  -0.69429
 Alpha  occ. eigenvalues --   -0.65062  -0.63613  -0.59293  -0.56521  -0.54014
 Alpha  occ. eigenvalues --   -0.51221  -0.50109  -0.48769  -0.45106  -0.41255
 Alpha virt. eigenvalues --    0.20130   0.22506   0.26998   0.28526   0.29692
 Alpha virt. eigenvalues --    0.31019   0.32773   0.34303   0.38701   0.40814
 Alpha virt. eigenvalues --    0.43266   0.45527   0.49941   0.74687   0.76789

 Mulliken charges:
               1
     1  O   -0.747674
     2  C   -0.030822
     3  C    0.133506
     4  O   -0.760875
     5  C   -0.029575
     6  O   -0.760726
     7  H    0.441643
     8  H    0.170373
     9  H    0.164586
    10  H    0.154969
    11  H    0.457315
    12  H    0.185140
    13  H    0.168603
    14  H    0.453536
 Sum of Mulliken charges =   0.00000

 Dipole moment (field-independent basis, Debye):
    X=             -1.5732    Y=             -0.6481    Z=              0.8633  Tot=              1.9079
 Quadrupole moment (field-independent basis, Debye-Ang):
   XX=            -38.2458   YY=            -40.7724   ZZ=            -32.3134
   XY=             -2.5003   XZ=             -2.9390   YZ=             -0.3179

 Normal termination of Gaussian 09 at Wed Sep 20 14:36:37 2023.
